<?xml version="1.0" encoding="UTF-8"?>

<!-- generated on 2025-12-29T17:04:28.543367+03:00 by Eclipse SUMO GUI 1.25.0
<sumoConfiguration xmlns:xsi="http://www.w3.org/2001/XMLSchema-instance" xsi:noNamespaceSchemaLocation="http://sumo.dlr.de/xsd/sumoConfiguration.xsd">

    <input>
        <net-file value="osm.net.xml.gz"/>
        <route-files value="osm.bus.trips.xml,osm.passenger.trips.xml"/>
        <additional-files value="osm.poly.xml.gz,output.add.xml"/>
    </input>

    <output>
        <tripinfo-output value="tripinfos.xml"/>
        <statistic-output value="stats.xml"/>
    </output>

    <processing>
        <ignore-route-errors value="true"/>
        <tls.actuated.jam-threshold value="30"/>
    </processing>

    <routing>
        <device.rerouting.adaptation-steps value="18"/>
        <device.rerouting.adaptation-interval value="10"/>
    </routing>

    <report>
        <verbose value="true"/>
        <duration-log.statistics value="true"/>
        <no-step-log value="true"/>
    </report>

    <traci_server>
        <remote-port value="7992"/>
    </traci_server>

    <gui_only>
        <gui-settings-file value="osm.view.xml"/>
        <start value="true"/>
    </gui_only>

</sumoConfiguration>
-->

<meandata xmlns:xsi="http://www.w3.org/2001/XMLSchema-instance" xsi:noNamespaceSchemaLocation="http://sumo.dlr.de/xsd/meandata_file.xsd">
    <interval begin="0.00" end="3600.00" id="wizard_example">
        <edge id="-1025084651" sampledSeconds="36.32" traveltime="2.47" overlapTraveltime="3.76" density="0.50" overlapDensity="0.73" laneDensity="0.50" occupancy="0.36" waitingTime="2.00" timeLoss="17.94" speed="5.65" speedRelative="0.41" departed="0" arrived="1" entered="10" left="9" laneChangedFrom="0" laneChangedTo="0" flow="10.09"/>
        <edge id="-1025084652" sampledSeconds="55.95" traveltime="3.26" overlapTraveltime="4.00" density="0.54" overlapDensity="0.66" laneDensity="0.54" occupancy="0.27" waitingTime="0.00" timeLoss="22.70" speed="7.17" speedRelative="0.52" departed="0" arrived="1" entered="14" left="13" laneChangedFrom="0" laneChangedTo="0" flow="13.83"/>
        <edge id="-1055767318" sampledSeconds="13.82" traveltime="3.66" overlapTraveltime="4.75" density="0.11" overlapDensity="0.18" laneDensity="0.11" occupancy="0.13" waitingTime="0.00" timeLoss="4.97" speed="6.47" speedRelative="0.47" departed="3" arrived="0" entered="1" left="4" laneChangedFrom="0" laneChangedTo="0" flow="2.56"/>
        <edge id="-1055767319" sampledSeconds="23.74" traveltime="3.33" overlapTraveltime="3.98" density="0.13" overlapDensity="0.16" laneDensity="0.13" occupancy="0.10" waitingTime="0.00" timeLoss="1.57" speed="12.41" speedRelative="0.89" departed="7" arrived="0" entered="0" left="7" laneChangedFrom="0" laneChangedTo="0" flow="5.70"/>
        <edge id="-1055769980" sampledSeconds="39.19" traveltime="4.65" overlapTraveltime="5.65" density="0.20" overlapDensity="0.24" laneDensity="0.20" occupancy="0.15" waitingTime="0.00" timeLoss="9.42" speed="9.10" speedRelative="0.66" departed="8" arrived="0" entered="0" left="8" laneChangedFrom="0" laneChangedTo="0" flow="6.41"/>
        <edge id="-1067047887#0" sampledSeconds="107.26" traveltime="26.23" overlapTraveltime="26.86" density="0.08" overlapDensity="0.08" laneDensity="0.08" occupancy="0.07" waitingTime="0.00" timeLoss="4.85" speed="13.44" speedRelative="0.97" departed="0" arrived="4" entered="4" left="0" laneChangedFrom="0" laneChangedTo="0" flow="4.00"/>
        <edge id="-1067047887#1" sampledSeconds="63.58" traveltime="4.87" overlapTraveltime="5.95" density="0.30" overlapDensity="0.36" laneDensity="0.30" occupancy="0.22" waitingTime="0.00" timeLoss="16.63" speed="9.30" speedRelative="0.67" departed="1" arrived="0" entered="10" left="11" laneChangedFrom="0" laneChangedTo="0" flow="10.02"/>
        <edge id="-1067047887#2" sampledSeconds="25.49" traveltime="2.16" overlapTraveltime="2.65" density="0.31" overlapDensity="0.39" laneDensity="0.31" occupancy="0.17" waitingTime="0.00" timeLoss="9.06" speed="8.91" speedRelative="0.64" departed="2" arrived="0" entered="8" left="10" laneChangedFrom="0" laneChangedTo="0" flow="10.08"/>
        <edge id="-1067047887#3" sampledSeconds="60.63" traveltime="5.23" overlapTraveltime="6.15" density="0.22" overlapDensity="0.26" laneDensity="0.22" occupancy="0.16" waitingTime="0.00" timeLoss="6.75" speed="11.72" speedRelative="0.84" departed="0" arrived="2" entered="10" left="8" laneChangedFrom="0" laneChangedTo="0" flow="9.42"/>
        <edge id="-1067047888#0" sampledSeconds="83.63" traveltime="4.75" overlapTraveltime="5.63" density="0.35" overlapDensity="0.41" laneDensity="0.35" occupancy="0.28" waitingTime="0.00" timeLoss="13.53" speed="11.68" speedRelative="0.84" departed="0" arrived="0" entered="15" left="15" laneChangedFrom="0" laneChangedTo="0" flow="14.51"/>
        <edge id="-1067047888#1" sampledSeconds="91.38" traveltime="6.56" overlapTraveltime="7.07" density="0.31" overlapDensity="0.33" laneDensity="0.31" occupancy="0.20" waitingTime="0.00" timeLoss="17.89" speed="11.67" speedRelative="0.84" departed="1" arrived="0" entered="12" left="13" laneChangedFrom="0" laneChangedTo="0" flow="13.07"/>
        <edge id="-1067047888#2" sampledSeconds="116.32" traveltime="14.16" overlapTraveltime="14.72" density="0.18" overlapDensity="0.19" laneDensity="0.18" occupancy="0.13" waitingTime="0.00" timeLoss="17.60" speed="12.17" speedRelative="0.88" departed="1" arrived="2" entered="7" left="6" laneChangedFrom="0" laneChangedTo="0" flow="7.94"/>
        <edge id="-1069029723#0" sampledSeconds="0.00" departed="0" arrived="0" entered="0" left="0" laneChangedFrom="0" laneChangedTo="0"/>
        <edge id="-1069029723#1" sampledSeconds="0.00" departed="0" arrived="0" entered="0" left="0" laneChangedFrom="0" laneChangedTo="0"/>
        <edge id="-1069029724" sampledSeconds="0.00" departed="0" arrived="0" entered="0" left="0" laneChangedFrom="0" laneChangedTo="0"/>
        <edge id="-1070113525" sampledSeconds="0.00" departed="0" arrived="0" entered="0" left="0" laneChangedFrom="0" laneChangedTo="0"/>
        <edge id="-1092093778" sampledSeconds="0.00" departed="0" arrived="0" entered="0" left="0" laneChangedFrom="0" laneChangedTo="0"/>
        <edge id="-1095328578" sampledSeconds="0.00" departed="0" arrived="0" entered="0" left="0" laneChangedFrom="0" laneChangedTo="0"/>
        <edge id="-1105156068" sampledSeconds="0.00" departed="0" arrived="0" entered="0" left="0" laneChangedFrom="0" laneChangedTo="0"/>
        <edge id="-1105156069" sampledSeconds="0.00" departed="0" arrived="0" entered="0" left="0" laneChangedFrom="0" laneChangedTo="0"/>
        <edge id="-1105170393" sampledSeconds="0.00" departed="0" arrived="0" entered="0" left="0" laneChangedFrom="0" laneChangedTo="0"/>
        <edge id="-1105170394#0" sampledSeconds="0.00" departed="0" arrived="0" entered="0" left="0" laneChangedFrom="0" laneChangedTo="0"/>
        <edge id="-1105170394#1" sampledSeconds="0.00" departed="0" arrived="0" entered="0" left="0" laneChangedFrom="0" laneChangedTo="0"/>
        <edge id="-1105170395" sampledSeconds="38.70" traveltime="8.43" overlapTraveltime="9.83" density="0.10" overlapDensity="0.12" laneDensity="0.10" occupancy="0.08" waitingTime="0.00" timeLoss="8.90" speed="9.73" speedRelative="0.70" departed="1" arrived="2" entered="3" left="2" laneChangedFrom="0" laneChangedTo="0" flow="3.65"/>
        <edge id="-1105170396" sampledSeconds="0.00" departed="0" arrived="0" entered="0" left="0" laneChangedFrom="0" laneChangedTo="0"/>
        <edge id="-1105170397" sampledSeconds="0.00" departed="0" arrived="0" entered="0" left="0" laneChangedFrom="0" laneChangedTo="0"/>
        <edge id="-1105170398" sampledSeconds="0.00" departed="0" arrived="0" entered="0" left="0" laneChangedFrom="0" laneChangedTo="0"/>
        <edge id="-1110178377" sampledSeconds="0.00" departed="0" arrived="0" entered="0" left="0" laneChangedFrom="0" laneChangedTo="0"/>
        <edge id="-1113226943" sampledSeconds="0.00" departed="0" arrived="0" entered="0" left="0" laneChangedFrom="0" laneChangedTo="0"/>
        <edge id="-1113226944#0" sampledSeconds="0.00" departed="0" arrived="0" entered="0" left="0" laneChangedFrom="0" laneChangedTo="0"/>
        <edge id="-1113226944#1" sampledSeconds="0.00" departed="0" arrived="0" entered="0" left="0" laneChangedFrom="0" laneChangedTo="0"/>
        <edge id="-1113226945" sampledSeconds="0.00" departed="0" arrived="0" entered="0" left="0" laneChangedFrom="0" laneChangedTo="0"/>
        <edge id="-1115168272#0" sampledSeconds="0.00" departed="0" arrived="0" entered="0" left="0" laneChangedFrom="0" laneChangedTo="0"/>
        <edge id="-1115168273" sampledSeconds="0.00" departed="0" arrived="0" entered="0" left="0" laneChangedFrom="0" laneChangedTo="0"/>
        <edge id="-1115168274" sampledSeconds="0.00" departed="0" arrived="0" entered="0" left="0" laneChangedFrom="0" laneChangedTo="0"/>
        <edge id="-1115168275" sampledSeconds="0.00" departed="0" arrived="0" entered="0" left="0" laneChangedFrom="0" laneChangedTo="0"/>
        <edge id="-1116164197" sampledSeconds="18.76" traveltime="2.85" overlapTraveltime="3.58" density="0.26" overlapDensity="0.34" laneDensity="0.26" occupancy="0.13" waitingTime="0.00" timeLoss="7.71" speed="5.64" speedRelative="0.41" departed="3" arrived="0" entered="3" left="6" laneChangedFrom="0" laneChangedTo="0" flow="5.29"/>
        <edge id="-1116164198" sampledSeconds="60.74" traveltime="7.39" overlapTraveltime="8.71" density="0.19" overlapDensity="0.23" laneDensity="0.19" occupancy="0.14" waitingTime="0.00" timeLoss="14.50" speed="9.39" speedRelative="0.68" departed="0" arrived="0" entered="7" left="7" laneChangedFrom="0" laneChangedTo="0" flow="6.52"/>
        <edge id="-1116164199" sampledSeconds="0.00" departed="0" arrived="0" entered="0" left="0" laneChangedFrom="0" laneChangedTo="0"/>
        <edge id="-1121630369" sampledSeconds="0.00" departed="0" arrived="0" entered="0" left="0" laneChangedFrom="0" laneChangedTo="0"/>
        <edge id="-1121630370" sampledSeconds="0.00" departed="0" arrived="0" entered="0" left="0" laneChangedFrom="0" laneChangedTo="0"/>
        <edge id="-1121630371" sampledSeconds="0.00" departed="0" arrived="0" entered="0" left="0" laneChangedFrom="0" laneChangedTo="0"/>
        <edge id="-1122205448" sampledSeconds="0.00" departed="0" arrived="0" entered="0" left="0" laneChangedFrom="0" laneChangedTo="0"/>
        <edge id="-1122205449#0" sampledSeconds="0.00" departed="0" arrived="0" entered="0" left="0" laneChangedFrom="0" laneChangedTo="0"/>
        <edge id="-1122205449#1" sampledSeconds="0.00" departed="0" arrived="0" entered="0" left="0" laneChangedFrom="0" laneChangedTo="0"/>
        <edge id="-1122205450" sampledSeconds="0.00" departed="0" arrived="0" entered="0" left="0" laneChangedFrom="0" laneChangedTo="0"/>
        <edge id="-1126871763" sampledSeconds="0.00" departed="0" arrived="0" entered="0" left="0" laneChangedFrom="0" laneChangedTo="0"/>
        <edge id="-1126877120" sampledSeconds="15.55" traveltime="4.96" overlapTraveltime="5.42" density="0.08" overlapDensity="0.08" laneDensity="0.08" occupancy="0.04" waitingTime="0.00" timeLoss="2.50" speed="10.33" speedRelative="0.74" departed="0" arrived="3" entered="3" left="0" laneChangedFrom="0" laneChangedTo="0" flow="3.02"/>
        <edge id="-1126877121" sampledSeconds="471.83" traveltime="1.35" overlapTraveltime="2.69" density="15.98" overlapDensity="29.79" laneDensity="15.98" occupancy="8.94" waitingTime="81.00" timeLoss="235.23" speed="4.35" speedRelative="0.31" departed="0" arrived="1" entered="187" left="186" laneChangedFrom="0" laneChangedTo="0" flow="250.14"/>
        <edge id="-1126877122#0" sampledSeconds="0.00" departed="0" arrived="0" entered="0" left="0" laneChangedFrom="0" laneChangedTo="0"/>
        <edge id="-1126877122#1" sampledSeconds="0.00" departed="0" arrived="0" entered="0" left="0" laneChangedFrom="0" laneChangedTo="0"/>
        <edge id="-1126877122#2" sampledSeconds="0.00" departed="0" arrived="0" entered="0" left="0" laneChangedFrom="0" laneChangedTo="0"/>
        <edge id="-1126892311" sampledSeconds="0.00" departed="0" arrived="0" entered="0" left="0" laneChangedFrom="0" laneChangedTo="0"/>
        <edge id="-1132632796" sampledSeconds="0.00" departed="0" arrived="0" entered="0" left="0" laneChangedFrom="0" laneChangedTo="0"/>
        <edge id="-1132632797" sampledSeconds="32.33" traveltime="16.11" overlapTraveltime="17.74" density="0.15" overlapDensity="0.17" laneDensity="0.15" occupancy="0.08" waitingTime="16.00" timeLoss="24.84" speed="3.24" speedRelative="0.23" departed="2" arrived="0" entered="0" left="2" laneChangedFrom="0" laneChangedTo="0" flow="1.80"/>
        <edge id="-1132632798" sampledSeconds="0.00" departed="0" arrived="0" entered="0" left="0" laneChangedFrom="0" laneChangedTo="0"/>
        <edge id="-1132632799" sampledSeconds="0.00" departed="0" arrived="0" entered="0" left="0" laneChangedFrom="0" laneChangedTo="0"/>
        <edge id="-1132632800" sampledSeconds="0.00" departed="0" arrived="0" entered="0" left="0" laneChangedFrom="0" laneChangedTo="0"/>
        <edge id="-1133062304" sampledSeconds="46.01" traveltime="0.21" overlapTraveltime="1.52" density="2.18" overlapDensity="13.45" laneDensity="2.18" occupancy="1.10" waitingTime="0.00" timeLoss="14.72" speed="5.15" speedRelative="0.23" departed="0" arrived="0" entered="35" left="35" laneChangedFrom="0" laneChangedTo="0" flow="40.33"/>
        <edge id="-1133062306" sampledSeconds="0.00" departed="0" arrived="0" entered="0" left="0" laneChangedFrom="0" laneChangedTo="0"/>
        <edge id="-1137532662" sampledSeconds="5.29" traveltime="4.85" overlapTraveltime="6.25" density="0.04" overlapDensity="0.04" laneDensity="0.04" occupancy="0.04" waitingTime="0.00" timeLoss="2.28" speed="7.90" speedRelative="0.57" departed="0" arrived="1" entered="1" left="0" laneChangedFrom="0" laneChangedTo="0" flow="1.02"/>
        <edge id="-1145549831" sampledSeconds="0.00" departed="0" arrived="0" entered="0" left="0" laneChangedFrom="0" laneChangedTo="0"/>
        <edge id="-1150082890" sampledSeconds="0.00" departed="0" arrived="0" entered="0" left="0" laneChangedFrom="0" laneChangedTo="0"/>
        <edge id="-1150082891" sampledSeconds="0.00" departed="0" arrived="0" entered="0" left="0" laneChangedFrom="0" laneChangedTo="0"/>
        <edge id="-1150082892" sampledSeconds="63.70" traveltime="11.92" overlapTraveltime="12.94" density="0.13" overlapDensity="0.14" laneDensity="0.13" occupancy="0.08" waitingTime="0.00" timeLoss="13.50" speed="10.20" speedRelative="0.73" departed="2" arrived="0" entered="3" left="5" laneChangedFrom="0" laneChangedTo="0" flow="4.76"/>
        <edge id="-1150082893" sampledSeconds="0.00" departed="0" arrived="0" entered="0" left="0" laneChangedFrom="0" laneChangedTo="0"/>
        <edge id="-1150082894" sampledSeconds="0.00" departed="0" arrived="0" entered="0" left="0" laneChangedFrom="0" laneChangedTo="0"/>
        <edge id="-1150082895#0" sampledSeconds="0.00" departed="0" arrived="0" entered="0" left="0" laneChangedFrom="0" laneChangedTo="0"/>
        <edge id="-1150082895#1" sampledSeconds="0.00" departed="0" arrived="0" entered="0" left="0" laneChangedFrom="0" laneChangedTo="0"/>
        <edge id="-1150082896#0" sampledSeconds="0.00" departed="0" arrived="0" entered="0" left="0" laneChangedFrom="0" laneChangedTo="0"/>
        <edge id="-1150082896#1" sampledSeconds="0.00" departed="0" arrived="0" entered="0" left="0" laneChangedFrom="0" laneChangedTo="0"/>
        <edge id="-1150082896#2" sampledSeconds="0.00" departed="0" arrived="0" entered="0" left="0" laneChangedFrom="0" laneChangedTo="0"/>
        <edge id="-1150082896#3" sampledSeconds="0.00" departed="0" arrived="0" entered="0" left="0" laneChangedFrom="0" laneChangedTo="0"/>
        <edge id="-1150082896#4" sampledSeconds="0.00" departed="0" arrived="0" entered="0" left="0" laneChangedFrom="0" laneChangedTo="0"/>
        <edge id="-1150082897#0" sampledSeconds="0.00" departed="0" arrived="0" entered="0" left="0" laneChangedFrom="0" laneChangedTo="0"/>
        <edge id="-1150082897#1" sampledSeconds="0.00" departed="0" arrived="0" entered="0" left="0" laneChangedFrom="0" laneChangedTo="0"/>
        <edge id="-1150082897#2" sampledSeconds="0.00" departed="0" arrived="0" entered="0" left="0" laneChangedFrom="0" laneChangedTo="0"/>
        <edge id="-1150082898#0" sampledSeconds="0.00" departed="0" arrived="0" entered="0" left="0" laneChangedFrom="0" laneChangedTo="0"/>
        <edge id="-1150082898#1" sampledSeconds="0.00" departed="0" arrived="0" entered="0" left="0" laneChangedFrom="0" laneChangedTo="0"/>
        <edge id="-1150082898#2" sampledSeconds="0.00" departed="0" arrived="0" entered="0" left="0" laneChangedFrom="0" laneChangedTo="0"/>
        <edge id="-1157866578" sampledSeconds="14.22" traveltime="1.39" overlapTraveltime="2.09" density="0.24" overlapDensity="0.54" laneDensity="0.24" occupancy="0.20" waitingTime="0.00" timeLoss="5.50" speed="7.31" speedRelative="0.53" departed="7" arrived="0" entered="3" left="10" laneChangedFrom="0" laneChangedTo="0" flow="6.26"/>
        <edge id="-1161965381" sampledSeconds="0.00" departed="0" arrived="0" entered="0" left="0" laneChangedFrom="0" laneChangedTo="0"/>
        <edge id="-1163295572" sampledSeconds="0.00" departed="0" arrived="0" entered="0" left="0" laneChangedFrom="0" laneChangedTo="0"/>
        <edge id="-1171554038#0" sampledSeconds="3810.62" traveltime="12.55" overlapTraveltime="14.19" density="10.23" overlapDensity="11.52" laneDensity="5.11" occupancy="3.73" waitingTime="806.00" timeLoss="2594.09" speed="6.96" speedRelative="0.25" departed="1" arrived="1" entered="269" left="268" laneChangedFrom="0" laneChangedTo="0" flow="256.39"/>
        <edge id="-1171554038#1" sampledSeconds="1229.29" traveltime="4.26" overlapTraveltime="4.57" density="3.34" overlapDensity="3.57" laneDensity="1.67" occupancy="1.11" waitingTime="0.00" timeLoss="226.83" speed="22.40" speedRelative="0.81" departed="3" arrived="0" entered="267" left="269" laneChangedFrom="4" laneChangedTo="4" flow="269.04"/>
        <edge id="-1171554038#10" sampledSeconds="596.13" traveltime="4.30" overlapTraveltime="4.60" density="1.63" overlapDensity="1.74" laneDensity="0.82" occupancy="0.55" waitingTime="0.00" timeLoss="110.35" speed="22.20" speedRelative="0.80" departed="0" arrived="2" entered="130" left="128" laneChangedFrom="10" laneChangedTo="10" flow="130.42"/>
        <edge id="-1171554038#11" sampledSeconds="233.74" traveltime="1.61" overlapTraveltime="1.97" density="1.66" overlapDensity="2.02" laneDensity="0.83" occupancy="0.56" waitingTime="0.00" timeLoss="59.31" speed="19.89" speedRelative="0.72" departed="3" arrived="0" entered="117" left="120" laneChangedFrom="11" laneChangedTo="11" flow="118.71"/>
        <edge id="-1171554038#12" sampledSeconds="528.14" traveltime="4.16" overlapTraveltime="4.50" density="1.64" overlapDensity="1.76" laneDensity="0.82" occupancy="0.58" waitingTime="0.00" timeLoss="136.35" speed="20.12" speedRelative="0.72" departed="0" arrived="1" entered="118" left="117" laneChangedFrom="8" laneChangedTo="8" flow="118.47"/>
        <edge id="-1171554038#13" sampledSeconds="425.23" traveltime="3.20" overlapTraveltime="3.67" density="2.44" overlapDensity="2.76" laneDensity="1.22" occupancy="0.84" waitingTime="0.00" timeLoss="211.47" speed="13.66" speedRelative="0.49" departed="1" arrived="3" entered="117" left="114" laneChangedFrom="0" laneChangedTo="0" flow="120.12"/>
        <edge id="-1171554038#14" sampledSeconds="270.21" traveltime="3.97" overlapTraveltime="4.44" density="1.38" overlapDensity="1.53" laneDensity="0.69" occupancy="0.46" waitingTime="0.00" timeLoss="141.31" speed="12.62" speedRelative="0.45" departed="3" arrived="1" entered="59" left="61" laneChangedFrom="4" laneChangedTo="4" flow="62.65"/>
        <edge id="-1171554038#15" sampledSeconds="93.59" traveltime="2.66" overlapTraveltime="3.21" density="0.63" overlapDensity="0.74" laneDensity="0.31" occupancy="0.24" waitingTime="0.00" timeLoss="47.62" speed="13.46" speedRelative="0.48" departed="1" arrived="2" entered="29" left="28" laneChangedFrom="0" laneChangedTo="0" flow="30.43"/>
        <edge id="-1171554038#16" sampledSeconds="85.87" traveltime="4.75" overlapTraveltime="5.11" density="0.33" overlapDensity="0.35" laneDensity="0.16" occupancy="0.10" waitingTime="0.00" timeLoss="40.88" speed="14.57" speedRelative="0.52" departed="1" arrived="1" entered="16" left="16" laneChangedFrom="0" laneChangedTo="0" flow="17.21"/>
        <edge id="-1171554038#17" sampledSeconds="29.59" traveltime="1.72" overlapTraveltime="2.31" density="0.50" overlapDensity="0.73" laneDensity="0.25" occupancy="0.12" waitingTime="0.00" timeLoss="15.11" speed="7.05" speedRelative="0.25" departed="7" arrived="0" entered="8" left="15" laneChangedFrom="6" laneChangedTo="6" flow="12.72"/>
        <edge id="-1171554038#2" sampledSeconds="837.10" traveltime="3.00" overlapTraveltime="3.34" density="3.06" overlapDensity="3.39" laneDensity="1.53" occupancy="1.03" waitingTime="5.00" timeLoss="145.91" speed="22.60" speedRelative="0.81" departed="1" arrived="2" entered="251" left="250" laneChangedFrom="0" laneChangedTo="0" flow="248.80"/>
        <edge id="-1171554038#3" sampledSeconds="4657.69" traveltime="18.48" overlapTraveltime="18.81" density="2.76" overlapDensity="2.81" laneDensity="1.38" occupancy="0.93" waitingTime="2.00" timeLoss="437.05" speed="24.83" speedRelative="0.89" departed="4" arrived="1" entered="245" left="246" laneChangedFrom="66" laneChangedTo="66" flow="246.90"/>
        <edge id="-1171554038#4" sampledSeconds="1027.66" traveltime="3.83" overlapTraveltime="4.17" density="3.81" overlapDensity="4.13" laneDensity="1.91" occupancy="1.29" waitingTime="0.00" timeLoss="345.32" speed="18.25" speedRelative="0.66" departed="4" arrived="3" entered="244" left="245" laneChangedFrom="19" laneChangedTo="19" flow="250.29"/>
        <edge id="-1171554038#5" sampledSeconds="136.23" traveltime="0.02" overlapTraveltime="0.68" density="5.49" overlapDensity="189.21" laneDensity="2.75" occupancy="1.84" waitingTime="0.00" timeLoss="76.09" speed="12.06" speedRelative="0.43" departed="3" arrived="0" entered="239" left="242" laneChangedFrom="1" laneChangedTo="1" flow="238.31"/>
        <edge id="-1171554038#7" sampledSeconds="341.35" traveltime="1.18" overlapTraveltime="1.99" density="266.39" overlapDensity="266.67" laneDensity="133.19" occupancy="2.46" waitingTime="243.00" timeLoss="295.97" speed="3.29" speedRelative="0.12" departed="0" arrived="1" entered="163" left="162" laneChangedFrom="1" laneChangedTo="1" flow="3150.55"/>
        <edge id="-1171554038#8" sampledSeconds="482.29" traveltime="2.53" overlapTraveltime="3.03" density="3.53" overlapDensity="4.15" laneDensity="1.77" occupancy="1.26" waitingTime="99.00" timeLoss="252.35" speed="13.08" speedRelative="0.47" departed="0" arrived="1" entered="162" left="161" laneChangedFrom="14" laneChangedTo="14" flow="166.34"/>
        <edge id="-1171554038#9" sampledSeconds="487.95" traveltime="3.19" overlapTraveltime="3.47" density="1.73" overlapDensity="1.88" laneDensity="0.87" occupancy="0.57" waitingTime="0.00" timeLoss="84.82" speed="22.66" speedRelative="0.82" departed="2" arrived="6" entered="139" left="135" laneChangedFrom="6" laneChangedTo="6" flow="141.29"/>
        <edge id="-1184377939" sampledSeconds="0.00" departed="0" arrived="0" entered="0" left="0" laneChangedFrom="0" laneChangedTo="0"/>
        <edge id="-1184377940" sampledSeconds="0.00" departed="0" arrived="0" entered="0" left="0" laneChangedFrom="0" laneChangedTo="0"/>
        <edge id="-1184377941" sampledSeconds="0.00" departed="0" arrived="0" entered="0" left="0" laneChangedFrom="0" laneChangedTo="0"/>
        <edge id="-1184377942" sampledSeconds="0.00" departed="0" arrived="0" entered="0" left="0" laneChangedFrom="0" laneChangedTo="0"/>
        <edge id="-1184377943" sampledSeconds="0.00" departed="0" arrived="0" entered="0" left="0" laneChangedFrom="0" laneChangedTo="0"/>
        <edge id="-1185878720" sampledSeconds="0.00" departed="0" arrived="0" entered="0" left="0" laneChangedFrom="0" laneChangedTo="0"/>
        <edge id="-1185878721" sampledSeconds="0.00" departed="0" arrived="0" entered="0" left="0" laneChangedFrom="0" laneChangedTo="0"/>
        <edge id="-1185878722" sampledSeconds="0.00" departed="0" arrived="0" entered="0" left="0" laneChangedFrom="0" laneChangedTo="0"/>
        <edge id="-1185879527" sampledSeconds="20.72" traveltime="4.19" overlapTraveltime="5.04" density="0.19" overlapDensity="0.24" laneDensity="0.19" occupancy="0.11" waitingTime="2.00" timeLoss="11.97" speed="5.69" speedRelative="0.41" departed="5" arrived="0" entered="0" left="5" laneChangedFrom="0" laneChangedTo="0" flow="3.95"/>
        <edge id="-1188600743" sampledSeconds="0.00" departed="0" arrived="0" entered="0" left="0" laneChangedFrom="0" laneChangedTo="0"/>
        <edge id="-1188600744" sampledSeconds="28.28" traveltime="4.28" overlapTraveltime="5.24" density="0.18" overlapDensity="0.20" laneDensity="0.18" occupancy="0.16" waitingTime="0.00" timeLoss="8.61" speed="9.51" speedRelative="0.68" departed="0" arrived="6" entered="6" left="0" laneChangedFrom="0" laneChangedTo="0" flow="6.14"/>
        <edge id="-1188600745" sampledSeconds="0.00" departed="0" arrived="0" entered="0" left="0" laneChangedFrom="0" laneChangedTo="0"/>
        <edge id="-1188600746" sampledSeconds="0.00" departed="0" arrived="0" entered="0" left="0" laneChangedFrom="0" laneChangedTo="0"/>
        <edge id="-1188600747#0" sampledSeconds="129.91" traveltime="7.55" overlapTraveltime="13.06" density="28.22" overlapDensity="34.70" laneDensity="28.22" occupancy="3.22" waitingTime="99.00" timeLoss="114.71" speed="0.92" speedRelative="0.07" departed="0" arrived="0" entered="14" left="14" laneChangedFrom="0" laneChangedTo="0" flow="93.50"/>
        <edge id="-1188600747#1" sampledSeconds="664.41" traveltime="38.82" overlapTraveltime="47.97" density="6.64" overlapDensity="8.11" laneDensity="6.64" occupancy="5.16" waitingTime="570.00" timeLoss="632.50" speed="0.64" speedRelative="0.05" departed="0" arrived="0" entered="14" left="14" laneChangedFrom="0" laneChangedTo="0" flow="15.23"/>
        <edge id="-1188600747#2" sampledSeconds="43.70" traveltime="6.38" overlapTraveltime="6.96" density="0.20" overlapDensity="0.22" laneDensity="0.20" occupancy="0.14" waitingTime="9.00" timeLoss="17.39" speed="8.83" speedRelative="0.64" departed="6" arrived="0" entered="1" left="7" laneChangedFrom="0" laneChangedTo="0" flow="6.25"/>
        <edge id="-1192009656" sampledSeconds="0.00" departed="0" arrived="0" entered="0" left="0" laneChangedFrom="0" laneChangedTo="0"/>
        <edge id="-1192009657" sampledSeconds="16.69" traveltime="2.77" overlapTraveltime="3.50" density="0.15" overlapDensity="0.18" laneDensity="0.15" occupancy="0.09" waitingTime="0.00" timeLoss="4.99" speed="8.98" speedRelative="0.65" departed="0" arrived="1" entered="5" left="4" laneChangedFrom="0" laneChangedTo="0" flow="4.90"/>
        <edge id="-1192009658" sampledSeconds="0.00" departed="0" arrived="0" entered="0" left="0" laneChangedFrom="0" laneChangedTo="0"/>
        <edge id="-1195527048" sampledSeconds="0.00" departed="0" arrived="0" entered="0" left="0" laneChangedFrom="0" laneChangedTo="0"/>
        <edge id="-1195527049" sampledSeconds="0.00" departed="0" arrived="0" entered="0" left="0" laneChangedFrom="0" laneChangedTo="0"/>
        <edge id="-1201621484" sampledSeconds="0.00" departed="0" arrived="0" entered="0" left="0" laneChangedFrom="0" laneChangedTo="0"/>
        <edge id="-1203385095" sampledSeconds="0.00" departed="0" arrived="0" entered="0" left="0" laneChangedFrom="0" laneChangedTo="0"/>
        <edge id="-1203385096" sampledSeconds="0.00" departed="0" arrived="0" entered="0" left="0" laneChangedFrom="0" laneChangedTo="0"/>
        <edge id="-1203385097" sampledSeconds="0.00" departed="0" arrived="0" entered="0" left="0" laneChangedFrom="0" laneChangedTo="0"/>
        <edge id="-1204790901" sampledSeconds="0.00" departed="0" arrived="0" entered="0" left="0" laneChangedFrom="0" laneChangedTo="0"/>
        <edge id="-1204790902" sampledSeconds="0.00" departed="0" arrived="0" entered="0" left="0" laneChangedFrom="0" laneChangedTo="0"/>
        <edge id="-1218661652" sampledSeconds="0.00" departed="0" arrived="0" entered="0" left="0" laneChangedFrom="0" laneChangedTo="0"/>
        <edge id="-1218661653" sampledSeconds="0.00" departed="0" arrived="0" entered="0" left="0" laneChangedFrom="0" laneChangedTo="0"/>
        <edge id="-1218661654" sampledSeconds="0.00" departed="0" arrived="0" entered="0" left="0" laneChangedFrom="0" laneChangedTo="0"/>
        <edge id="-1218661655" sampledSeconds="0.00" departed="0" arrived="0" entered="0" left="0" laneChangedFrom="0" laneChangedTo="0"/>
        <edge id="-1218661656" sampledSeconds="0.00" departed="0" arrived="0" entered="0" left="0" laneChangedFrom="0" laneChangedTo="0"/>
        <edge id="-1218661657" sampledSeconds="5.75" traveltime="2.94" overlapTraveltime="3.99" density="0.04" overlapDensity="0.07" laneDensity="0.04" occupancy="0.05" waitingTime="0.00" timeLoss="1.64" speed="7.78" speedRelative="0.56" departed="2" arrived="0" entered="0" left="2" laneChangedFrom="0" laneChangedTo="0" flow="1.26"/>
        <edge id="-1218661658" sampledSeconds="0.00" departed="0" arrived="0" entered="0" left="0" laneChangedFrom="0" laneChangedTo="0"/>
        <edge id="-1218661659" sampledSeconds="0.00" departed="0" arrived="0" entered="0" left="0" laneChangedFrom="0" laneChangedTo="0"/>