<?xml version="1.0" encoding="UTF-8"?>

<!-- generated on 2025-12-29T17:04:27.460394+03:00 by Eclipse SUMO GUI 1.25.0
<sumoConfiguration xmlns:xsi="http://www.w3.org/2001/XMLSchema-instance" xsi:noNamespaceSchemaLocation="http://sumo.dlr.de/xsd/sumoConfiguration.xsd">

    <input>
        <net-file value="osm.net.xml.gz"/>
        <route-files value="osm.bus.trips.xml,osm.passenger.trips.xml"/>
        <additional-files value="osm.poly.xml.gz,output.add.xml"/>
    </input>

    <output>
        <tripinfo-output value="tripinfos.xml"/>
        <statistic-output value="stats.xml"/>
    </output>

    <processing>
        <ignore-route-errors value="true"/>
        <tls.actuated.jam-threshold value="30"/>
    </processing>

    <routing>
        <device.rerouting.adaptation-steps value="18"/>
        <device.rerouting.adaptation-interval value="10"/>
    </routing>

    <report>
        <verbose value="true"/>
        <duration-log.statistics value="true"/>
        <no-step-log value="true"/>
    </report>

    <traci_server>
        <remote-port value="7992"/>
    </traci_server>

    <gui_only>
        <gui-settings-file value="osm.view.xml"/>
        <start value="true"/>
    </gui_only>

</sumoConfiguration>
-->

<tripinfos xmlns:xsi="http://www.w3.org/2001/XMLSchema-instance" xsi:noNamespaceSchemaLocation="http://sumo.dlr.de/xsd/tripinfo_file.xsd">
    <tripinfo id="veh56" depart="42.00" departLane="195589147#0_0" departPos="0.20" departSpeed="0.00" departDelay="0.59" arrival="79.00" arrivalLane="567533000_0" arrivalPos="49.56" arrivalSpeed="12.37" duration="37.00" routeLength="361.01" waitingTime="0.00" waitingCount="0" stopTime="0.00" timeLoss="7.05" rerouteNo="1" devices="tripinfo_veh56 routing_veh56" vType="veh_passenger" speedFactor="0.90" vaporized=""/>
    <tripinfo id="veh54" depart="40.00" departLane="-202553278#0_0" departPos="5.10" departSpeed="0.00" departDelay="0.07" arrival="103.00" arrivalLane="-157546881#1_0" arrivalPos="20.89" arrivalSpeed="12.89" duration="63.00" routeLength="947.06" waitingTime="0.00" waitingCount="0" stopTime="0.00" timeLoss="19.30" rerouteNo="1" devices="tripinfo_veh54 routing_veh54" vType="veh_passenger" speedFactor="1.00" vaporized=""/>
    <tripinfo id="veh4" depart="3.00" departLane="23952242#3_0" departPos="5.10" departSpeed="0.00" departDelay="0.04" arrival="105.00" arrivalLane="422891751#0_0" arrivalPos="194.29" arrivalSpeed="13.92" duration="102.00" routeLength="1907.42" waitingTime="0.00" waitingCount="0" stopTime="0.00" timeLoss="23.05" rerouteNo="1" devices="tripinfo_veh4 routing_veh4" vType="veh_passenger" speedFactor="1.03" vaporized=""/>
    <tripinfo id="veh44" depart="33.00" departLane="24348407#4_0" departPos="5.10" departSpeed="0.00" departDelay="0.46" arrival="108.00" arrivalLane="-532882193_0" arrivalPos="26.61" arrivalSpeed="13.26" duration="75.00" routeLength="1074.09" waitingTime="0.00" waitingCount="0" stopTime="0.00" timeLoss="18.15" rerouteNo="1" devices="tripinfo_veh44 routing_veh44" vType="veh_passenger" speedFactor="1.04" vaporized=""/>
    <tripinfo id="veh18" depart="14.00" departLane="565859270_0" departPos="5.10" departSpeed="0.00" departDelay="0.69" arrival="117.00" arrivalLane="-565872309_0" arrivalPos="38.36" arrivalSpeed="11.79" duration="103.00" routeLength="1153.79" waitingTime="0.00" waitingCount="0" stopTime="0.00" timeLoss="19.96" rerouteNo="1" devices="tripinfo_veh18 routing_veh18" vType="veh_passenger" speedFactor="0.94" vaporized=""/>
    <tripinfo id="bus0" depart="0.00" departLane="25683327#0_0" departPos="12.10" departSpeed="13.89" departDelay="0.00" arrival="118.00" arrivalLane="-156195331#0_0" arrivalPos="107.36" arrivalSpeed="13.31" duration="118.00" routeLength="1333.73" waitingTime="0.00" waitingCount="0" stopTime="0.00" timeLoss="40.68" rerouteNo="1" devices="tripinfo_bus0 routing_bus0" vType="bus_bus" speedFactor="1.00" vaporized=""/>
    <tripinfo id="veh22" depart="17.00" departLane="24728998#2_0" departPos="5.10" departSpeed="0.00" departDelay="0.73" arrival="121.00" arrivalLane="-60050675_0" arrivalPos="162.23" arrivalSpeed="13.30" duration="104.00" routeLength="1431.46" waitingTime="0.00" waitingCount="0" stopTime="0.00" timeLoss="21.57" rerouteNo="1" devices="tripinfo_veh22 routing_veh22" vType="veh_passenger" speedFactor="0.97" vaporized=""/>
    <tripinfo id="veh5" depart="4.00" departLane="1173008688#3_1" departPos="5.10" departSpeed="0.00" departDelay="0.30" arrival="123.00" arrivalLane="-415107341#2_0" arrivalPos="45.67" arrivalSpeed="11.01" duration="119.00" routeLength="1459.25" waitingTime="0.00" waitingCount="0" stopTime="0.00" timeLoss="29.83" rerouteNo="1" devices="tripinfo_veh5 routing_veh5" vType="veh_passenger" speedFactor="0.83" vaporized=""/>
    <tripinfo id="bus9" depart="20.00" departLane="532174094_0" departPos="12.10" departSpeed="13.89" departDelay="0.04" arrival="130.00" arrivalLane="-1171554038#7_0" arrivalPos="0.20" arrivalSpeed="11.86" duration="110.00" routeLength="1230.59" waitingTime="2.00" waitingCount="1" stopTime="0.00" timeLoss="50.63" rerouteNo="1" devices="tripinfo_bus9 routing_bus9" vType="bus_bus" speedFactor="1.00" vaporized=""/>
    <tripinfo id="veh3" depart="3.00" departLane="-591703443_0" departPos="5.10" departSpeed="15.04" departDelay="0.78" arrival="130.00" arrivalLane="51078502#0_0" arrivalPos="90.97" arrivalSpeed="14.07" duration="127.00" routeLength="1903.02" waitingTime="0.00" waitingCount="0" stopTime="0.00" timeLoss="29.23" rerouteNo="1" devices="tripinfo_veh3 routing_veh3" vType="veh_passenger" speedFactor="1.08" vaporized=""/>
    <tripinfo id="veh7" depart="6.00" departLane="-59720100#0_0" departPos="5.10" departSpeed="0.00" departDelay="0.82" arrival="138.00" arrivalLane="-24729035#2_0" arrivalPos="30.65" arrivalSpeed="11.30" duration="132.00" routeLength="2079.28" waitingTime="0.00" waitingCount="0" stopTime="0.00" timeLoss="17.32" rerouteNo="1" devices="tripinfo_veh7 routing_veh7" vType="veh_passenger" speedFactor="0.89" vaporized=""/>
    <tripinfo id="bus6" depart="14.00" departLane="-156193303#8_1" departPos="12.10" departSpeed="0.00" departDelay="0.69" arrival="139.00" arrivalLane="-417100449#0_0" arrivalPos="70.71" arrivalSpeed="13.30" duration="125.00" routeLength="1552.13" waitingTime="0.00" waitingCount="0" stopTime="0.00" timeLoss="33.80" rerouteNo="1" devices="tripinfo_bus6 routing_bus6" vType="bus_bus" speedFactor="1.00" vaporized=""/>
    <tripinfo id="bus16" depart="36.00" departLane="532882194_0" departPos="12.10" departSpeed="0.00" departDelay="0.51" arrival="140.00" arrivalLane="24729053#1_0" arrivalPos="68.55" arrivalSpeed="13.15" duration="104.00" routeLength="1304.58" waitingTime="5.00" waitingCount="1" stopTime="0.00" timeLoss="42.59" rerouteNo="1" devices="tripinfo_bus16 routing_bus16" vType="bus_bus" speedFactor="1.00" vaporized=""/>
    <tripinfo id="veh55" depart="41.00" departLane="23952242#0_1" departPos="5.10" departSpeed="0.00" departDelay="0.33" arrival="141.00" arrivalLane="24729186#1_0" arrivalPos="72.11" arrivalSpeed="13.32" duration="100.00" routeLength="1122.58" waitingTime="0.00" waitingCount="0" stopTime="0.00" timeLoss="27.40" rerouteNo="1" devices="tripinfo_veh55 routing_veh55" vType="veh_passenger" speedFactor="1.00" vaporized=""/>
    <tripinfo id="veh91" depart="68.00" departLane="-590624291#0_0" departPos="5.10" departSpeed="0.00" departDelay="0.71" arrival="143.00" arrivalLane="426024217_0" arrivalPos="112.81" arrivalSpeed="12.03" duration="75.00" routeLength="748.17" waitingTime="0.00" waitingCount="0" stopTime="0.00" timeLoss="12.60" rerouteNo="1" devices="tripinfo_veh91 routing_veh91" vType="veh_passenger" speedFactor="0.89" vaporized=""/>
    <tripinfo id="veh21" depart="16.00" departLane="43707954_0" departPos="5.10" departSpeed="0.00" departDelay="0.47" arrival="145.00" arrivalLane="-202553279_0" arrivalPos="133.22" arrivalSpeed="13.14" duration="129.00" routeLength="1817.83" waitingTime="0.00" waitingCount="0" stopTime="0.00" timeLoss="36.33" rerouteNo="1" devices="tripinfo_veh21 routing_veh21" vType="veh_passenger" speedFactor="1.01" vaporized=""/>
    <tripinfo id="bus5" depart="12.00" departLane="-40886413#10_0" departPos="12.10" departSpeed="0.00" departDelay="0.91" arrival="148.00" arrivalLane="162656267#10_0" arrivalPos="56.29" arrivalSpeed="13.59" duration="136.00" routeLength="1452.67" waitingTime="0.00" waitingCount="0" stopTime="0.00" timeLoss="27.87" rerouteNo="1" devices="tripinfo_bus5 routing_bus5" vType="bus_bus" speedFactor="1.00" vaporized=""/>
    <tripinfo id="veh69" depart="52.00" departLane="-43707954_0" departPos="5.10" departSpeed="0.00" departDelay="0.98" arrival="150.00" arrivalLane="25683325#12_1" arrivalPos="6.73" arrivalSpeed="13.95" duration="98.00" routeLength="1499.55" waitingTime="3.00" waitingCount="1" stopTime="0.00" timeLoss="34.43" rerouteNo="1" devices="tripinfo_veh69 routing_veh69" vType="veh_passenger" speedFactor="1.02" vaporized=""/>
    <tripinfo id="veh96" depart="71.00" departLane="206104684_0" departPos="5.10" departSpeed="0.00" departDelay="0.01" arrival="150.00" arrivalLane="-202285264#1_0" arrivalPos="68.82" arrivalSpeed="13.83" duration="79.00" routeLength="873.81" waitingTime="0.00" waitingCount="0" stopTime="0.00" timeLoss="23.12" rerouteNo="1" devices="tripinfo_veh96 routing_veh96" vType="veh_passenger" speedFactor="1.01" vaporized=""/>
    <tripinfo id="bus1" depart="3.00" departLane="-427107712_0" departPos="12.10" departSpeed="12.06" departDelay="0.78" arrival="153.00" arrivalLane="-426020230_0" arrivalPos="31.21" arrivalSpeed="9.81" duration="150.00" routeLength="1642.83" waitingTime="4.00" waitingCount="1" stopTime="0.00" timeLoss="58.77" rerouteNo="1" devices="tripinfo_bus1 routing_bus1" vType="bus_bus" speedFactor="1.00" vaporized=""/>
    <tripinfo id="veh27" depart="20.00" departLane="36285602#1_0" departPos="5.10" departSpeed="0.00" departDelay="0.04" arrival="153.00" arrivalLane="-193663868#0_0" arrivalPos="383.11" arrivalSpeed="12.59" duration="133.00" routeLength="1515.43" waitingTime="0.00" waitingCount="0" stopTime="0.00" timeLoss="19.96" rerouteNo="1" devices="tripinfo_veh27 routing_veh27" vType="veh_passenger" speedFactor="0.95" vaporized=""/>
    <tripinfo id="veh49" depart="37.00" departLane="71394432#2_0" departPos="5.10" departSpeed="0.00" departDelay="0.77" arrival="158.00" arrivalLane="27229208#6_0" arrivalPos="48.39" arrivalSpeed="11.11" duration="121.00" routeLength="1153.53" waitingTime="0.00" waitingCount="0" stopTime="0.00" timeLoss="26.49" rerouteNo="1" devices="tripinfo_veh49 routing_veh49" vType="veh_passenger" speedFactor="0.85" vaporized=""/>
    <tripinfo id="veh53" depart="40.00" departLane="-425392447_0" departPos="5.10" departSpeed="15.22" departDelay="0.81" arrival="158.00" arrivalLane="151483790#18_0" arrivalPos="153.86" arrivalSpeed="29.59" duration="118.00" routeLength="1692.91" waitingTime="0.00" waitingCount="0" stopTime="0.00" timeLoss="41.06" rerouteNo="1" devices="tripinfo_veh53 routing_veh53" vType="veh_passenger" speedFactor="1.10" vaporized=""/>
    <tripinfo id="bus7" depart="16.00" departLane="27229176_0" departPos="12.10" departSpeed="0.00" departDelay="0.47" arrival="159.00" arrivalLane="206104697_0" arrivalPos="66.56" arrivalSpeed="13.49" duration="143.00" routeLength="1468.38" waitingTime="6.00" waitingCount="2" stopTime="0.00" timeLoss="65.29" rerouteNo="1" devices="tripinfo_bus7 routing_bus7" vType="bus_bus" speedFactor="1.00" vaporized=""/>
    <tripinfo id="veh12" depart="9.00" departLane="-202553277#1_0" departPos="5.10" departSpeed="0.00" departDelay="0.13" arrival="160.00" arrivalLane="590635002_0" arrivalPos="20.41" arrivalSpeed="11.04" duration="151.00" routeLength="2090.26" waitingTime="0.00" waitingCount="0" stopTime="0.00" timeLoss="36.97" rerouteNo="1" devices="tripinfo_veh12 routing_veh12" vType="veh_passenger" speedFactor="1.05" vaporized=""/>
    <tripinfo id="veh78" depart="58.00" departLane="200810087#9_1" departPos="5.10" departSpeed="0.00" departDelay="0.32" arrival="160.00" arrivalLane="24257095#16_0" arrivalPos="10.10" arrivalSpeed="11.40" duration="102.00" routeLength="1299.19" waitingTime="0.00" waitingCount="0" stopTime="0.00" timeLoss="25.92" rerouteNo="1" devices="tripinfo_veh78 routing_veh78" vType="veh_passenger" speedFactor="1.01" vaporized=""/>
    <tripinfo id="bus14" depart="32.00" departLane="206104655#1_0" departPos="12.10" departSpeed="0.00" departDelay="0.94" arrival="164.00" arrivalLane="674289547#1_0" arrivalPos="4.54" arrivalSpeed="10.05" duration="132.00" routeLength="1640.57" waitingTime="7.00" waitingCount="1" stopTime="0.00" timeLoss="56.75" rerouteNo="1" devices="tripinfo_bus14 routing_bus14" vType="bus_bus" speedFactor="1.00" vaporized=""/>
    <tripinfo id="veh110" depart="82.00" departLane="156193303#2_0" departPos="5.10" departSpeed="0.00" departDelay="0.66" arrival="165.00" arrivalLane="25683325#6_0" arrivalPos="168.26" arrivalSpeed="25.29" duration="83.00" routeLength="1560.52" waitingTime="0.00" waitingCount="0" stopTime="0.00" timeLoss="19.52" rerouteNo="1" devices="tripinfo_veh110 routing_veh110" vType="veh_passenger" speedFactor="0.93" vaporized=""/>
    <tripinfo id="veh50" depart="37.00" departLane="678129411_0" departPos="5.10" departSpeed="11.87" departDelay="0.03" arrival="167.00" arrivalLane="-43707910#0_0" arrivalPos="18.97" arrivalSpeed="11.17" duration="130.00" routeLength="1692.87" waitingTime="0.00" waitingCount="0" stopTime="0.00" timeLoss="25.64" rerouteNo="1" devices="tripinfo_veh50 routing_veh50" vType="veh_passenger" speedFactor="0.85" vaporized=""/>
    <tripinfo id="veh57" depart="43.00" departLane="534449077_0" departPos="5.10" departSpeed="14.92" departDelay="0.85" arrival="169.00" arrivalLane="60050673_0" arrivalPos="125.36" arrivalSpeed="15.33" duration="126.00" routeLength="1383.09" waitingTime="11.00" waitingCount="1" stopTime="0.00" timeLoss="34.80" rerouteNo="1" devices="tripinfo_veh57 routing_veh57" vType="veh_passenger" speedFactor="1.14" vaporized=""/>
    <tripinfo id="veh128" depart="95.00" departLane="-443453241#4_0" departPos="5.10" departSpeed="0.00" departDelay="0.35" arrival="170.00" arrivalLane="24729002#1_0" arrivalPos="42.41" arrivalSpeed="13.97" duration="75.00" routeLength="824.55" waitingTime="0.00" waitingCount="0" stopTime="0.00" timeLoss="18.96" rerouteNo="1" devices="tripinfo_veh128 routing_veh128" vType="veh_passenger" speedFactor="1.12" vaporized=""/>
    <tripinfo id="veh113" depart="84.00" departLane="-44631135#1_0" departPos="5.10" departSpeed="0.00" departDelay="0.44" arrival="172.00" arrivalLane="27229200#0_0" arrivalPos="99.76" arrivalSpeed="12.78" duration="88.00" routeLength="1236.44" waitingTime="0.00" waitingCount="0" stopTime="0.00" timeLoss="19.89" rerouteNo="1" devices="tripinfo_veh113 routing_veh113" vType="veh_passenger" speedFactor="1.01" vaporized=""/>
    <tripinfo id="veh138" depart="103.00" departLane="24492888#0_0" departPos="5.10" departSpeed="0.00" departDelay="0.96" arrival="172.00" arrivalLane="422900174#11_1" arrivalPos="186.80" arrivalSpeed="27.21" duration="69.00" routeLength="1049.63" waitingTime="0.00" waitingCount="0" stopTime="0.00" timeLoss="23.54" rerouteNo="1" devices="tripinfo_veh138 routing_veh138" vType="veh_passenger" speedFactor="1.00" vaporized=""/>
    <tripinfo id="veh45" depart="34.00" departLane="24554425#3_0" departPos="5.10" departSpeed="0.00" departDelay="0.73" arrival="173.00" arrivalLane="566731171_0" arrivalPos="74.93" arrivalSpeed="14.12" duration="139.00" routeLength="2238.38" waitingTime="4.00" waitingCount="1" stopTime="0.00" timeLoss="41.34" rerouteNo="1" devices="tripinfo_veh45 routing_veh45" vType="veh_passenger" speedFactor="1.09" vaporized=""/>
    <tripinfo id="veh59" depart="44.00" departLane="-25010020#0_0" departPos="5.10" departSpeed="0.00" departDelay="0.37" arrival="173.00" arrivalLane="422900168_0" arrivalPos="58.86" arrivalSpeed="13.02" duration="129.00" routeLength="1860.02" waitingTime="0.00" waitingCount="0" stopTime="0.00" timeLoss="29.52" rerouteNo="1" devices="tripinfo_veh59 routing_veh59" vType="veh_passenger" speedFactor="0.97" vaporized=""/>
    <tripinfo id="veh150" depart="111.00" departLane="588003472_0" departPos="5.10" departSpeed="13.38" departDelay="0.08" arrival="175.00" arrivalLane="43456256#1_0" arrivalPos="58.22" arrivalSpeed="13.07" duration="64.00" routeLength="747.09" waitingTime="0.00" waitingCount="0" stopTime="0.00" timeLoss="14.59" rerouteNo="1" devices="tripinfo_veh150 routing_veh150" vType="veh_passenger" speedFactor="0.96" vaporized=""/>
    <tripinfo id="veh72" depart="54.00" departLane="417100449#12_0" departPos="0.20" departSpeed="0.00" departDelay="0.76" arrival="176.00" arrivalLane="160456975#0_1" arrivalPos="100.09" arrivalSpeed="20.18" duration="122.00" routeLength="2041.07" waitingTime="7.00" waitingCount="1" stopTime="0.00" timeLoss="34.41" rerouteNo="1" devices="tripinfo_veh72 routing_veh72" vType="veh_passenger" speedFactor="0.94" vaporized=""/>
    <tripinfo id="veh141" depart="105.00" departLane="25683325#12_0" departPos="5.10" departSpeed="0.00" departDelay="0.74" arrival="176.00" arrivalLane="-532220668#4_0" arrivalPos="45.55" arrivalSpeed="16.11" duration="71.00" routeLength="973.63" waitingTime="0.00" waitingCount="0" stopTime="0.00" timeLoss="17.85" rerouteNo="1" devices="tripinfo_veh141 routing_veh141" vType="veh_passenger" speedFactor="1.16" vaporized=""/>
    <tripinfo id="veh15" depart="12.00" departLane="-24492888#1_0" departPos="5.10" departSpeed="0.00" departDelay="0.91" arrival="177.00" arrivalLane="51078535_0" arrivalPos="38.61" arrivalSpeed="11.59" duration="165.00" routeLength="2784.12" waitingTime="0.00" waitingCount="0" stopTime="0.00" timeLoss="33.81" rerouteNo="1" devices="tripinfo_veh15 routing_veh15" vType="veh_passenger" speedFactor="0.93" vaporized=""/>
    <tripinfo id="veh116" depart="86.00" departLane="160456972#3_2" departPos="5.10" departSpeed="0.00" departDelay="0.23" arrival="178.00" arrivalLane="59720100#3_0" arrivalPos="31.15" arrivalSpeed="15.10" duration="92.00" routeLength="1218.38" waitingTime="0.00" waitingCount="0" stopTime="0.00" timeLoss="16.60" rerouteNo="1" devices="tripinfo_veh116 routing_veh116" vType="veh_passenger" speedFactor="1.18" vaporized=""/>
    <tripinfo id="veh154" depart="114.00" departLane="-151406639#2_0" departPos="5.10" departSpeed="0.00" departDelay="0.13" arrival="178.00" arrivalLane="35971274#5_0" arrivalPos="13.66" arrivalSpeed="28.68" duration="64.00" routeLength="665.02" waitingTime="5.00" waitingCount="2" stopTime="0.00" timeLoss="30.00" rerouteNo="1" devices="tripinfo_veh154 routing_veh154" vType="veh_passenger" speedFactor="1.06" vaporized=""/>
    <tripinfo id="veh64" depart="48.00" departLane="-59720100#3_0" departPos="5.10" departSpeed="0.00" departDelay="0.68" arrival="179.00" arrivalLane="-565859274#0_0" arrivalPos="102.96" arrivalSpeed="12.97" duration="131.00" routeLength="1882.65" waitingTime="0.00" waitingCount="0" stopTime="0.00" timeLoss="22.61" rerouteNo="1" devices="tripinfo_veh64 routing_veh64" vType="veh_passenger" speedFactor="0.94" vaporized=""/>
    <tripinfo id="veh23" depart="18.00" departLane="-35913612_0" departPos="5.10" departSpeed="0.00" departDelay="0.99" arrival="181.00" arrivalLane="24727475#3_0" arrivalPos="116.77" arrivalSpeed="12.15" duration="163.00" routeLength="2013.33" waitingTime="0.00" waitingCount="0" stopTime="0.00" timeLoss="26.41" rerouteNo="1" devices="tripinfo_veh23 routing_veh23" vType="veh_passenger" speedFactor="0.89" vaporized=""/>
    <tripinfo id="veh177" depart="131.00" departLane="590624291#4_0" departPos="5.10" departSpeed="0.00" departDelay="0.12" arrival="183.00" arrivalLane="-151407220#3_0" arrivalPos="43.18" arrivalSpeed="12.99" duration="52.00" routeLength="700.26" waitingTime="0.00" waitingCount="0" stopTime="0.00" timeLoss="12.49" rerouteNo="1" devices="tripinfo_veh177 routing_veh177" vType="veh_passenger" speedFactor="1.03" vaporized=""/>
    <tripinfo id="veh40" depart="30.00" departLane="534449069_0" departPos="5.10" departSpeed="14.31" departDelay="0.42" arrival="184.00" arrivalLane="-963995764_0" arrivalPos="27.06" arrivalSpeed="12.33" duration="154.00" routeLength="2304.33" waitingTime="0.00" waitingCount="0" stopTime="0.00" timeLoss="33.67" rerouteNo="1" devices="tripinfo_veh40 routing_veh40" vType="veh_passenger" speedFactor="1.03" vaporized=""/>
    <tripinfo id="veh107" depart="80.00" departLane="-27229184#0_0" departPos="5.10" departSpeed="0.00" departDelay="0.88" arrival="186.00" arrivalLane="283562278#2_0" arrivalPos="13.02" arrivalSpeed="11.31" duration="106.00" routeLength="1750.60" waitingTime="0.00" waitingCount="0" stopTime="0.00" timeLoss="30.86" rerouteNo="1" devices="tripinfo_veh107 routing_veh107" vType="veh_passenger" speedFactor="1.03" vaporized=""/>
    <tripinfo id="bus8" depart="18.00" departLane="-417100436_0" departPos="12.10" departSpeed="0.00" departDelay="0.25" arrival="187.00" arrivalLane="24291817#11_0" arrivalPos="32.91" arrivalSpeed="13.66" duration="169.00" routeLength="2163.14" waitingTime="8.00" waitingCount="1" stopTime="0.00" timeLoss="49.57" rerouteNo="1" devices="tripinfo_bus8 routing_bus8" vType="bus_bus" speedFactor="1.00" vaporized=""/>
    <tripinfo id="veh13" depart="10.00" departLane="533402382#1_0" departPos="5.10" departSpeed="0.00" departDelay="0.39" arrival="188.00" arrivalLane="-534455577_0" arrivalPos="50.09" arrivalSpeed="14.77" duration="178.00" routeLength="2824.74" waitingTime="0.00" waitingCount="0" stopTime="0.00" timeLoss="39.47" rerouteNo="1" devices="tripinfo_veh13 routing_veh13" vType="veh_passenger" speedFactor="1.12" vaporized=""/>
    <tripinfo id="veh124" depart="92.00" departLane="25010410#3_0" departPos="5.10" departSpeed="0.00" departDelay="0.31" arrival="188.00" arrivalLane="-51078521#1_0" arrivalPos="55.73" arrivalSpeed="14.54" duration="96.00" routeLength="1417.60" waitingTime="0.00" waitingCount="0" stopTime="0.00" timeLoss="26.42" rerouteNo="1" devices="tripinfo_veh124 routing_veh124" vType="veh_passenger" speedFactor="1.06" vaporized=""/>
    <tripinfo id="veh137" depart="102.00" departLane="-27229185#1_0" departPos="5.10" departSpeed="0.00" departDelay="0.70" arrival="190.00" arrivalLane="-162046429#1_0" arrivalPos="109.20" arrivalSpeed="21.51" duration="88.00" routeLength="1261.93" waitingTime="0.00" waitingCount="0" stopTime="0.00" timeLoss="24.20" rerouteNo="1" devices="tripinfo_veh137 routing_veh137" vType="veh_passenger" speedFactor="1.02" vaporized=""/>
    <tripinfo id="bus28" depart="63.00" departLane="533402382#5_0" departPos="12.10" departSpeed="0.00" departDelay="0.89" arrival="191.00" arrivalLane="425463194_0" arrivalPos="19.23" arrivalSpeed="7.33" duration="128.00" routeLength="1614.06" waitingTime="2.00" waitingCount="1" stopTime="0.00" timeLoss="45.96" rerouteNo="1" devices="tripinfo_bus28 routing_bus28" vType="bus_bus" speedFactor="1.00" vaporized=""/>
    <tripinfo id="veh62" depart="46.00" departLane="25522623#2_0" departPos="1.20" departSpeed="0.00" departDelay="0.15" arrival="192.00" arrivalLane="-426146825#3_0" arrivalPos="21.30" arrivalSpeed="11.25" duration="146.00" routeLength="1659.02" waitingTime="0.00" waitingCount="0" stopTime="0.00" timeLoss="24.43" rerouteNo="1" devices="tripinfo_veh62 routing_veh62" vType="veh_passenger" speedFactor="1.02" vaporized=""/>
    <tripinfo id="veh36" depart="27.00" departLane="422891412#1_0" departPos="5.10" departSpeed="0.00" departDelay="0.38" arrival="193.00" arrivalLane="77488875#1_0" arrivalPos="28.14" arrivalSpeed="13.40" duration="166.00" routeLength="1925.43" waitingTime="0.00" waitingCount="0" stopTime="0.00" timeLoss="33.88" rerouteNo="1" devices="tripinfo_veh36 routing_veh36" vType="veh_passenger" speedFactor="0.97" vaporized=""/>
    <tripinfo id="veh10" depart="8.00" departLane="193914273#0_0" departPos="5.10" departSpeed="0.00" departDelay="0.61" arrival="196.00" arrivalLane="24257095#16_0" arrivalPos="10.10" arrivalSpeed="11.12" duration="188.00" routeLength="2644.38" waitingTime="4.00" waitingCount="1" stopTime="0.00" timeLoss="50.21" rerouteNo="1" devices="tripinfo_veh10 routing_veh10" vType="veh_passenger" speedFactor="1.09" vaporized=""/>
    <tripinfo id="veh109" depart="81.00" departLane="1218662271_0" departPos="5.10" departSpeed="10.09" departDelay="0.40" arrival="196.00" arrivalLane="151483790#20_0" arrivalPos="294.86" arrivalSpeed="26.65" duration="115.00" routeLength="1399.73" waitingTime="0.00" waitingCount="0" stopTime="0.00" timeLoss="21.25" rerouteNo="1" devices="tripinfo_veh109 routing_veh109" vType="veh_passenger" speedFactor="0.96" vaporized=""/>
    <tripinfo id="veh52" depart="39.00" departLane="-678129408_0" departPos="5.10" departSpeed="0.00" departDelay="0.55" arrival="197.00" arrivalLane="77488885#0_0" arrivalPos="72.97" arrivalSpeed="13.93" duration="158.00" routeLength="2779.27" waitingTime="4.00" waitingCount="1" stopTime="0.00" timeLoss="44.49" rerouteNo="1" devices="tripinfo_veh52 routing_veh52" vType="veh_passenger" speedFactor="1.02" vaporized=""/>
    <tripinfo id="veh123" depart="91.00" departLane="548121258#0_0" departPos="5.10" departSpeed="0.00" departDelay="0.05" arrival="197.00" arrivalLane="569034721_0" arrivalPos="195.60" arrivalSpeed="13.55" duration="106.00" routeLength="1198.87" waitingTime="0.00" waitingCount="0" stopTime="0.00" timeLoss="26.00" rerouteNo="1" devices="tripinfo_veh123 routing_veh123" vType="veh_passenger" speedFactor="1.02" vaporized=""/>
    <tripinfo id="veh42" depart="32.00" departLane="-422891414_0" departPos="5.10" departSpeed="0.00" departDelay="0.94" arrival="201.00" arrivalLane="588003469_0" arrivalPos="85.35" arrivalSpeed="14.59" duration="169.00" routeLength="2665.51" waitingTime="0.00" waitingCount="0" stopTime="0.00" timeLoss="40.20" rerouteNo="1" devices="tripinfo_veh42 routing_veh42" vType="veh_passenger" speedFactor="1.09" vaporized=""/>
    <tripinfo id="bus19" depart="43.00" departLane="-207702721_0" departPos="12.10" departSpeed="13.89" departDelay="0.85" arrival="205.00" arrivalLane="-427107708#1_0" arrivalPos="47.86" arrivalSpeed="12.01" duration="162.00" routeLength="2388.28" waitingTime="0.00" waitingCount="0" stopTime="0.00" timeLoss="50.96" rerouteNo="1" devices="tripinfo_bus19 routing_bus19" vType="bus_bus" speedFactor="1.00" vaporized=""/>
    <tripinfo id="bus18" depart="40.00" departLane="35971274#3_0" departPos="12.10" departSpeed="0.00" departDelay="0.07" arrival="208.00" arrivalLane="-194608187#0_0" arrivalPos="99.49" arrivalSpeed="13.56" duration="168.00" routeLength="2216.17" waitingTime="0.00" waitingCount="0" stopTime="0.00" timeLoss="61.57" rerouteNo="1" devices="tripinfo_bus18 routing_bus18" vType="bus_bus" speedFactor="1.00" vaporized=""/>
    <tripinfo id="veh16" depart="12.00" departLane="283562280#2_0" departPos="5.10" departSpeed="0.00" departDelay="0.17" arrival="208.00" arrivalLane="-24729012#4_0" arrivalPos="35.52" arrivalSpeed="11.65" duration="196.00" routeLength="2552.94" waitingTime="21.00" waitingCount="1" stopTime="0.00" timeLoss="56.41" rerouteNo="1" devices="tripinfo_veh16 routing_veh16" vType="veh_passenger" speedFactor="0.88" vaporized=""/>
    <tripinfo id="veh103" depart="77.00" departLane="542773753_0" departPos="5.10" departSpeed="13.23" departDelay="0.84" arrival="211.00" arrivalLane="44631136#1_0" arrivalPos="33.70" arrivalSpeed="12.21" duration="134.00" routeLength="1659.90" waitingTime="0.00" waitingCount="0" stopTime="0.00" timeLoss="35.91" rerouteNo="1" devices="tripinfo_veh103 routing_veh103" vType="veh_passenger" speedFactor="0.95" vaporized=""/>
    <tripinfo id="veh114" depart="85.00" departLane="-422891412#1_0" departPos="5.10" departSpeed="0.00" departDelay="0.70" arrival="211.00" arrivalLane="283562280#6_1" arrivalPos="33.56" arrivalSpeed="29.21" duration="126.00" routeLength="2545.33" waitingTime="0.00" waitingCount="0" stopTime="0.00" timeLoss="25.30" rerouteNo="1" devices="tripinfo_veh114 routing_veh114" vType="veh_passenger" speedFactor="1.10" vaporized=""/>
    <tripinfo id="bus3" depart="7.00" departLane="542773754_0" departPos="12.10" departSpeed="10.10" departDelay="0.35" arrival="212.00" arrivalLane="-24493181#0_0" arrivalPos="56.75" arrivalSpeed="13.69" duration="205.00" routeLength="2788.56" waitingTime="0.00" waitingCount="0" stopTime="0.00" timeLoss="42.30" rerouteNo="1" devices="tripinfo_bus3 routing_bus3" vType="bus_bus" speedFactor="1.00" vaporized=""/>
    <tripinfo id="veh35" depart="26.00" departLane="757834004#2_0" departPos="0.20" departSpeed="0.00" departDelay="0.12" arrival="214.00" arrivalLane="-27229157#1_0" arrivalPos="62.00" arrivalSpeed="13.30" duration="188.00" routeLength="2622.29" waitingTime="5.00" waitingCount="1" stopTime="0.00" timeLoss="44.06" rerouteNo="1" devices="tripinfo_veh35 routing_veh35" vType="veh_passenger" speedFactor="1.02" vaporized=""/>
    <tripinfo id="bus44" depart="98.00" departLane="-1188600747#2_0" departPos="12.10" departSpeed="13.89" departDelay="0.39" arrival="215.00" arrivalLane="35971274#9_0" arrivalPos="129.28" arrivalSpeed="27.58" duration="117.00" routeLength="1720.78" waitingTime="2.00" waitingCount="1" stopTime="0.00" timeLoss="44.04" rerouteNo="1" devices="tripinfo_bus44 routing_bus44" vType="bus_bus" speedFactor="1.00" vaporized=""/>
    <tripinfo id="veh32" depart="24.00" departLane="-24494642#1_0" departPos="5.10" departSpeed="0.00" departDelay="0.34" arrival="215.00" arrivalLane="207342709#4_0" arrivalPos="39.91" arrivalSpeed="11.74" duration="191.00" routeLength="2802.01" waitingTime="0.00" waitingCount="0" stopTime="0.00" timeLoss="36.89" rerouteNo="1" devices="tripinfo_veh32 routing_veh32" vType="veh_passenger" speedFactor="1.01" vaporized=""/>